 # Fcc Al oriented X=[100] Y=[010] Z=[001].
 
           4  atoms
           1  atom types
 
      0.00000000       4.04600000  xlo xhi
      0.00000000       4.04600000  ylo yhi
      0.00000000       4.04600000  zlo zhi
 
Masses
 
           1   26.98153860    # Al
 
Atoms # atomic
 
         1    1        0.00000000       0.00000000       0.00000000
         2    1        2.02300000       2.02300000       0.00000000
         3    1        0.00000000       2.02300000       2.02300000
         4    1        2.02300000       0.00000000       2.02300000
