 # Voronoi polycrystal with 2 grains
 
        3259  atoms
           1  atom types
 
      0.00000000      30.00000000  xlo xhi
      0.00000000      30.00000000  ylo yhi
      0.00000000      60.00000000  zlo zhi
 
Masses
 
           1   26.98153860    # Al
 
Atoms # atomic
 
         1    1       12.95398048      25.95935012      42.94459973
         2    1       12.74081184      26.14005214      38.90826205
         3    1       12.52764320      26.32075416      34.87192436
         4    1       12.31447457      26.50145619      30.83558668
         5    1       14.95463600      26.57635318      44.89440555
         6    1       14.74146736      26.75705521      40.85806786
         7    1       13.76317641      23.97584938      44.84090792
         8    1       14.57237233      21.99234863      46.73721611
         9    1       12.57171682      21.37534557      44.78741030
        10    1       13.55000777      24.15655140      40.80457024
        11    1       14.35920370      22.17305066      42.70087843
        12    1       12.35854818      21.55604759      40.75107261
        13    1       13.33683913      24.33725342      36.76823255
        14    1       14.14603506      22.35375268      38.66454074
        15    1       12.14537954      21.73674961      36.71473493
        16    1       13.12367049      24.51795544      32.73189487
        17    1       13.93286642      22.53445470      34.62820306
        18    1       11.93221091      21.91745164      32.67839724
        19    1       12.91050186      24.69865747      28.69555718
        20    1       13.71969779      22.71515672      30.59186537
        21    1       17.55131881      25.39055753      44.70418187
        22    1       18.36051473      23.40705678      46.60049006
        23    1       16.35985922      22.79005372      44.65068424
        24    1       15.55066329      24.77355446      42.75437605
        25    1       17.33815017      25.57125955      40.66784418
        26    1       18.14734610      23.58775881      42.56415237
        27    1       16.14669058      22.97075574      40.61434656
        28    1       15.33749465      24.95425649      38.71803837
        29    1       17.12498153      25.75196157      36.63150650
        30    1       17.93417746      23.76846083      38.52781469
        31    1       15.93352194      23.15145776      36.57800887
        32    1       15.12432601      25.13495851      34.68170068
        33    1       16.91181289      25.93266359      32.59516881
        34    1       17.72100882      23.94916285      34.49147700
        35    1       15.72035330      23.33215979      32.54167119
        36    1       14.91115738      25.31566053      30.64536300
        37    1       16.69864426      26.11336562      28.55883113
        38    1       17.50784018      24.12986487      30.45513932
        39    1       15.50718467      23.51286181      28.50533350
        40    1       17.29467155      24.31056690      26.41880163
        41    1       19.55197432      26.00756059      46.65398768
        42    1       21.33946120      26.80526568      44.56745581
        43    1       22.14865713      24.82176493      46.46376400
        44    1       20.14800161      24.20476187      44.51395819
        45    1       19.33880569      26.18826261      42.61765000
        46    1       21.93548850      25.00246696      42.42742632
        47    1       19.93483298      24.38546389      40.47762050
        48    1       19.12563705      26.36896464      38.58131231
        49    1       21.72231986      25.18316898      38.39108863
        50    1       19.72166434      24.56616592      36.44128282
        51    1       18.91246841      26.54966666      34.54497463
        52    1       21.50915122      25.36387100      34.35475095
        53    1       19.50849570      24.74686794      32.40494513
        54    1       18.69929977      26.73036868      30.50863694
        55    1       21.29598258      25.54457302      30.31841326
        56    1       19.29532707      24.92756996      28.36860745
        57    1       21.08281395      25.72527505      26.28207558
        58    1       25.93679953      26.23647309      46.32703795
        59    1       23.93614401      25.61947002      44.37723213
        60    1       25.72363089      26.41717511      42.29070026
        61    1       23.72297538      25.80017204      40.34089445
        62    1       25.51046226      26.59787713      38.25436258
        63    1       23.50980674      25.98087407      36.30455676
        64    1       25.29729362      26.77857915      34.21802489
        65    1       23.29663810      26.16157609      32.26821908
        66    1       23.08346946      26.34227811      28.23188139
        67    1       22.87030083      26.52298013      24.19554371
        68    1       27.93745505      26.85347615      48.27684376
        69    1       12.18945316      16.79134102      46.63022086
        70    1       11.97628452      16.97204304      42.59388318
        71    1       13.38091275      19.39184483      46.68371849
        72    1       15.16839963      20.18954991      44.59718662
        73    1       15.97759555      18.20604917      46.49349481
        74    1       13.97694004      17.58904611      44.54368899
        75    1       13.16774411      19.57254685      42.64738080
        76    1       14.95523099      20.37025194      40.56084893
        77    1       15.76442692      18.38675119      42.45715712
        78    1       13.76377140      17.76974813      40.50735131
        79    1       12.95457547      19.75324887      38.61104312
        80    1       14.74206235      20.55095396      36.52451125
        81    1       15.55125828      18.56745321      38.42081944
        82    1       13.55060276      17.95045015      36.47101362
        83    1       12.74140683      19.93395089      34.57470543
        84    1       14.52889371      20.73165598      32.48817356
        85    1       15.33808964      18.74815524      34.38448175
        86    1       13.33743412      18.13115217      32.43467594
        87    1       12.52823820      20.11465292      30.53836775
        88    1       14.31572508      20.91235800      28.45183588
        89    1       15.12492101      18.92885726      30.34814407
        90    1       13.12426549      18.31185420      28.39833825
        91    1       14.91175237      19.10955928      26.31180638
        92    1       17.16905514      20.80655298      46.54699243
        93    1       18.95654203      21.60425806      44.46046056
        94    1       19.76573795      19.62075732      46.35676875
        95    1       17.76508244      19.00375426      44.40696294
        96    1       16.95588651      20.98725500      42.51065475
        97    1       18.74337339      21.78496009      40.42412288
        98    1       19.55256932      19.80145934      42.32043107
        99    1       17.55191380      19.18445628      40.37062525
       100    1       16.74271787      21.16795702      38.47431706
       101    1       18.53020475      21.96566211      36.38778519
       102    1       19.33940068      19.98216137      38.28409338
       103    1       17.33874516      19.36515830      36.33428757
       104    1       16.52954923      21.34865904      34.43797938
       105    1       18.31703611      22.14636413      32.35144751
       106    1       19.12623204      20.16286339      34.24775570
       107    1       17.12557652      19.54586032      32.29794988
       108    1       16.31638060      21.52936107      30.40164169
       109    1       18.10386748      22.32706615      28.31510982
       110    1       18.91306340      20.34356541      30.21141801
       111    1       16.91240789      19.72656235      28.26161220
       112    1       16.10321196      21.71006309      26.36530401
       113    1       18.69989477      20.52426743      26.17508033
       114    1       21.76639347      20.23776038      48.30657457
       115    1       20.95719754      22.22126113      46.41026638
       116    1       22.74468442      23.01896621      44.32373451
       117    1       23.55388035      21.03546547      46.22004270
       118    1       21.55322483      20.41846241      44.27023688
       119    1       20.74402891      22.40196315      42.37392869
       120    1       22.53151579      23.19966824      40.28739682
       121    1       23.34071172      21.21616749      42.18370501
       122    1       21.34005620      20.59916443      40.23389920
       123    1       20.53086027      22.58266517      38.33759101
       124    1       22.31834715      23.38037026      36.25105914
       125    1       23.12754308      21.39686952      38.14736733
       126    1       21.12688756      20.77986645      36.19756151
       127    1       20.31769163      22.76336720      34.30125332
       128    1       22.10517851      23.56107228      32.21472145
       129    1       22.91437444      21.57757154      34.11102964
       130    1       20.91371892      20.96056847      32.16122383
       131    1       20.10452299      22.94406922      30.26491564
       132    1       21.89200987      23.74177430      28.17838377
       133    1       22.70120580      21.75827356      30.07469196
       134    1       20.70055029      21.14127050      28.12488614
       135    1       19.89135436      23.12477124      26.22857795
       136    1       21.67884124      23.92247633      24.14204608
       137    1       22.48803717      21.93897558      26.03835427
       138    1       20.48738165      21.32197252      24.08854845
       139    1       26.74599546      24.25297234      48.22334614
       140    1       25.55453587      21.65246854      48.16984851
       141    1       24.74533994      23.63596928      46.27354032
       142    1       26.53282682      24.43367436      44.18700845
       143    1       27.34202275      22.45017362      46.08331664
       144    1       25.34136723      21.83317056      44.13351083
       145    1       24.53217130      23.81667130      42.23720264
       146    1       26.31965819      24.61437639      40.15067077
       147    1       27.12885411      22.63087564      42.04697896
       148    1       25.12819860      22.01387258      40.09717314
       149    1       24.31900267      23.99737332      38.20086495
       150    1       26.10648955      24.79507841      36.11433308
       151    1       26.91568548      22.81157767      38.01064127
       152    1       24.91502996      22.19457460      36.06083546
       153    1       24.10583403      24.17807535      34.16452727
       154    1       25.89332091      24.97578043      32.07799540
       155    1       26.70251684      22.99227969      33.97430359
       156    1       24.70186132      22.37527663      32.02449777
       157    1       23.89266539      24.35877737      30.12818958
       158    1       25.68015227      25.15648245      28.04165771
       159    1       26.48934820      23.17298171      29.93796590
       160    1       24.48869268      22.55597865      27.98816009
       161    1       23.67949676      24.53947939      26.09185190
       162    1       25.46698364      25.33718448      24.00532002
       163    1       26.27617957      23.35368373      25.90162821
       164    1       24.27552405      22.73668067      23.95182240
       165    1       26.06301093      23.53438576      21.86529053
       166    1        0.53413786      25.66768049      48.08662008
       167    1       29.34267827      23.06717669      48.03312246
       168    1       28.53348234      25.05067743      46.13681427
       169    1        0.32096922      25.84838252      44.05028240
       170    1        1.13016515      23.86488177      45.94659059
       171    1       29.12950963      23.24787871      43.99678477
       172    1       28.32031370      25.23137945      42.10047658
       173    1        0.10780058      26.02908454      40.01394471
       174    1        0.91699651      24.04558380      41.91025290
       175    1       28.91634100      23.42858073      39.96044709
       176    1       28.10714507      25.41208147      38.06413890
       177    1       29.89463195      26.20978656      35.97760703
       178    1        0.70382788      24.22628582      37.87391522
       179    1       28.70317236      23.60928275      35.92410940
       180    1       27.89397643      25.59278350      34.02780121
       181    1       29.68146331      26.39048858      31.94126934
       182    1        0.49065924      24.40698784      33.83757753
       183    1       28.49000372      23.78998478      31.88777172
       184    1       27.68080779      25.77348552      29.99146353
       185    1       29.46829467      26.57119061      27.90493166
       186    1        0.27749060      24.58768986      29.80123985
       187    1       28.27683508      23.97068680      27.85143403
       188    1       27.46763915      25.95418754      25.95512584
       189    1       29.25512604      26.75189263      23.86859397
       190    1        0.06432196      24.76839188      25.76490216
       191    1       28.06366645      24.15138882      23.81509634
       192    1       27.25447052      26.13488956      21.91878815
       193    1       29.85115333      24.94909391      21.72856447
       194    1        3.13082067      24.48188484      47.89639640
       195    1        2.32162474      26.46538558      46.00008821
       196    1        4.91830755      25.27958992      45.80986453
       197    1        2.91765203      24.66258686      43.86005872
       198    1        2.10845610      26.64608760      41.96375053
       199    1        4.70513891      25.46029195      41.77352685
       200    1        2.70448339      24.84328888      39.82372103
       201    1        1.89528747      26.82678962      37.92741284
       202    1        4.49197027      25.64099397      37.73718916
       203    1        2.49131476      25.02399090      35.78738335
       204    1        4.27880164      25.82169599      33.70085148
       205    1        2.27814612      25.20469293      31.75104566
       206    1        4.06563300      26.00239801      29.66451379
       207    1        2.06497748      25.38539495      27.71470797
       208    1        3.85246436      26.18310004      25.62817610
       209    1        1.85180884      25.56609697      23.67837029
       210    1        3.63929573      26.36380206      21.59183842
       211    1        1.63864021      25.74679899      19.64203260
       212    1        6.91896307      25.89659299      47.75967035
       213    1        8.70644995      26.69429807      45.67313848
       214    1        6.70579443      26.07729501      43.72333266
       215    1        8.49328131      26.87500010      41.63680079
       216    1        6.49262579      26.25799703      39.68699498
       217    1        6.27945716      26.43869905      35.65065729
       218    1        6.06628852      26.61940108      31.61431961
       219    1        5.85311988      26.80010310      27.57798192
       220    1       12.78548045      14.98854230      44.49019137
       221    1       13.59467638      13.00504156      46.38649956
       222    1       12.57231181      15.16924432      40.45385368
       223    1       13.38150774      13.18574358      42.35016187
       224    1       12.35914317      15.34994634      36.41751600
       225    1       13.16833910      13.36644560      38.31382419
       226    1       12.14597454      15.53064837      32.38117831
       227    1       12.95517046      13.54714762      34.27748650
       228    1       11.93280590      15.71135039      28.34484063
       229    1       12.74200183      13.72784965      30.24114882
       230    1       12.52883319      13.90855167      26.20481113
       231    1       14.78613597      15.60554536      46.43999718
       232    1       16.57362285      16.40325045      44.35346531
       233    1       17.38281877      14.41974971      46.24977350
       234    1       15.38216326      13.80274664      44.29996769
       235    1       14.57296733      15.78624739      42.40365950
       236    1       16.36045421      16.58395247      40.31712763
       237    1       17.16965014      14.60045173      42.21343582
       238    1       15.16899462      13.98344866      40.26363000
       239    1       14.35979869      15.96694941      38.36732181
       240    1       16.14728557      16.76465449      36.28078994
       241    1       16.95648150      14.78115375      38.17709813
       242    1       14.95582598      14.16415069      36.22729232
       243    1       14.14663005      16.14765143      34.33098413
       244    1       15.93411693      16.94535652      32.24445226
       245    1       16.74331286      14.96185577      34.14076045
       246    1       14.74265734      14.34485271      32.19095463
       247    1       13.93346142      16.32835345      30.29464644
       248    1       15.72094830      17.12605854      28.20811457
       249    1       16.53014423      15.14255780      30.10442276
       250    1       14.52948871      14.52555473      28.15461695
       251    1       13.72029278      16.50905548      26.25830876
       252    1       15.50777966      17.30676056      24.17177688
       253    1       16.31697559      15.32325982      26.06808507
       254    1       14.31632007      14.70625675      24.11827926
       255    1       20.57493388      17.63725658      48.25307694
       256    1       19.38347429      15.03675277      48.19957932
       257    1       18.57427836      17.02025351      46.30327113
       258    1       20.36176525      17.81795860      44.21673926
       259    1       21.17096117      15.83445786      46.11304745
       260    1       19.17030566      15.21745479      44.16324163
       261    1       18.36110973      17.20095554      42.26693344
       262    1       20.14859661      17.99866062      40.18040157
       263    1       20.95779254      16.01515988      42.07670976
       264    1       18.95713702      15.39815682      40.12690395
       265    1       18.14794109      17.38165756      38.23059576
       266    1       19.93542797      18.17936264      36.14406389
       267    1       20.74462390      16.19586190      38.04037208
       268    1       18.74396838      15.57885884      36.09056626
       269    1       17.93477245      17.56235958      34.19425807
       270    1       19.72225933      18.36006467      32.10772620
       271    1       20.53145526      16.37656392      34.00403439
       272    1       18.53079974      15.75956086      32.05422858
       273    1       17.72160382      17.74306160      30.15792039
       274    1       19.50909070      18.54076669      28.07138852
       275    1       20.31828662      16.55726595      29.96769671
       276    1       18.31763111      15.94026288      28.01789089
       277    1       17.50843518      17.92376363      26.12158270
       278    1       19.29592206      18.72146871      24.03505083
       279    1       20.10511799      16.73796797      25.93135902
       280    1       18.10446247      16.12096491      23.98155320
       281    1       19.89194935      16.91866999      21.89502133
       282    1       24.36307628      19.05196473      48.11635089
       283    1       23.17161669      16.45146092      48.06285326
       284    1       22.36242076      18.43496166      46.16654507
       285    1       24.14990764      19.23266675      44.08001320
       286    1       24.95910357      17.24916601      45.97632139
       287    1       22.95844805      16.63216294      44.02651558
       288    1       22.14925213      18.61566369      42.13020739
       289    1       23.93673901      19.41336877      40.04367552
       290    1       24.74593494      17.42986803      41.93998371
       291    1       22.74527942      16.81286497      39.99017789
       292    1       21.93608349      18.79636571      38.09386970
       293    1       23.72357037      19.59407080      36.00733783
       294    1       24.53276630      17.61057005      37.90364602
       295    1       22.53211078      16.99356699      35.95384021
       296    1       21.72291485      18.97706773      34.05753202
       297    1       23.51040173      19.77477282      31.97100015
       298    1       24.31959766      17.79127208      33.86730834
       299    1       22.31894214      17.17426901      31.91750252
       300    1       21.50974621      19.15776975      30.02119433
       301    1       23.29723309      19.95547484      27.93466246
       302    1       24.10642902      17.97197410      29.83097065
       303    1       22.10577351      17.35497103      27.88116483
       304    1       21.29657758      19.33847178      25.98485664
       305    1       23.08406446      20.13617686      23.89832477
       306    1       23.89326039      18.15267612      25.79463296
       307    1       21.89260487      17.53567306      23.84482715
       308    1       23.68009175      18.33337814      21.75829528
       309    1       28.15121868      20.46667288      47.97962483
       310    1       28.96041461      18.48317214      49.87593302
       311    1       26.95975909      17.86616907      47.92612721
       312    1       26.15056316      19.84966981      46.02981902
       313    1       27.93805004      20.64737490      43.94328715
       314    1       28.74724597      18.66387416      45.83959534
       315    1       26.74659045      18.04687109      43.88978952
       316    1       25.93739452      20.03037184      41.99348133
       317    1       27.72488141      20.82807692      39.90694946
       318    1       28.53407733      18.84457618      41.80325765
       319    1       26.53342182      18.22757312      39.85345184
       320    1       25.72422589      20.21107386      37.95714365
       321    1       27.51171277      21.00877895      35.87061178
       322    1       28.32090870      19.02527820      37.76691997
       323    1       26.32025318      18.40827514      35.81711415
       324    1       25.51105725      20.39177588      33.92080596
       325    1       27.29854413      21.18948097      31.83427409
       326    1       28.10774006      19.20598023      33.73058228
       327    1       26.10708454      18.58897716      31.78077647
       328    1       25.29788861      20.57247790      29.88446828
       329    1       27.08537549      21.37018299      27.79793640
       330    1       27.89457142      19.38668225      29.69424460
       331    1       25.89391590      18.76967918      27.74443878
       332    1       25.08471998      20.75317993      25.84813059
       333    1       26.87220686      21.55088501      23.76159872
       334    1       27.68140279      19.56738427      25.65790691
       335    1       25.68074727      18.95038121      23.70810109
       336    1       24.87155134      20.93388195      21.81179290
       337    1       27.46823415      19.74808629      21.62156922
       338    1       25.46757863      19.13108323      19.67176341
       339    1        1.93936108      21.88138103      47.84289878
       340    1        2.74855701      19.89788029      49.73920697
       341    1        0.74790149      19.28087722      47.78940115
       342    1       29.93870556      21.26437797      45.89309296
       343    1        1.72619244      22.06208305      43.80656109
       344    1        2.53538837      20.07858231      45.70286928
       345    1        0.53473285      19.46157924      43.75306347
       346    1       29.72553692      21.44507999      41.85675528
       347    1        1.51302380      22.24278507      39.77022341
       348    1        2.32221973      20.25928433      41.66653160
       349    1        0.32156422      19.64228127      39.71672578
       350    1       29.51236829      21.62578201      37.82041759
       351    1        1.29985517      22.42348710      35.73388572
       352    1        2.10905110      20.43998635      37.63019391
       353    1        0.10839558      19.82298329      35.68038810
       354    1       29.29919965      21.80648403      33.78407991
       355    1        1.08668653      22.60418912      31.69754804
       356    1        1.89588246      20.62068838      33.59385623
       357    1       29.89522694      20.00368531      31.64405041
       358    1       29.08603101      21.98718606      29.74774222
       359    1        0.87351789      22.78489114      27.66121035
       360    1        1.68271382      20.80139040      29.55751854
       361    1       29.68205830      20.18438733      27.60771272
       362    1       28.87286237      22.16788808      25.71140453
       363    1        0.66034926      22.96559316      23.62487266
       364    1        1.46954518      20.98209242      25.52118085
       365    1       29.46888967      20.36508936      23.57137504
       366    1       28.65969374      22.34859010      21.67506685
       367    1        0.44718062      23.14629519      19.58853498
       368    1        1.25637655      21.16279444      21.48484317
       369    1       29.25572103      20.54579138      19.53503735
       370    1        3.94001660      22.49838409      49.79270459
       371    1        5.72750348      23.29608918      47.70617272
       372    1        4.53604389      20.69558537      47.65267510
       373    1        3.72684796      22.67908612      45.75636691
       374    1        5.51433484      23.47679120      43.66983504
       375    1        6.32353077      21.49329046      45.56614323
       376    1        4.32287525      20.87628740      43.61633741
       377    1        3.51367932      22.85978814      41.72002922
       378    1        5.30116620      23.65749323      39.63349735
       379    1        6.11036213      21.67399248      41.52980554
       380    1        4.10970661      21.05698942      39.57999973
       381    1        3.30051069      23.04049016      37.68369154
       382    1        5.08799757      23.83819525      35.59715967
       383    1        5.89719349      21.85469450      37.49346786
       384    1        3.89653798      21.23769144      35.54366204
       385    1        3.08734205      23.22119218      33.64735385
       386    1        4.87482893      24.01889727      31.56082198
       387    1        5.68402486      22.03539653      33.45713017
       388    1        3.68336934      21.41839346      31.50732436
       389    1        2.87417341      23.40189421      29.61101616
       390    1        4.66166029      24.19959929      27.52448429
       391    1        5.47085622      22.21609855      29.42079248
       392    1        3.47020070      21.59909549      27.47098667
       393    1        2.66100477      23.58259623      25.57467848
       394    1        4.44849165      24.38030131      23.48814661
       395    1        5.25768758      22.39680057      25.38445480
       396    1        3.25703206      21.77979751      23.43464898
       397    1        2.44783614      23.76329825      21.53834079
       398    1        4.23532302      24.56100334      19.45180892
       399    1        5.04451895      22.57750259      21.34811711
       400    1        3.04386343      21.96049953      19.39831130
       401    1        8.32418629      22.11029352      47.51594904
       402    1        7.51499036      24.09379427      45.61964085
       403    1        9.30247724      24.89149935      43.53310898
       404    1       10.11167317      22.90799861      45.42941717
       405    1        8.11101765      22.29099555      43.47961136
       406    1        7.30182172      24.27449629      41.58330317
       407    1        9.08930860      25.07220138      39.49677130
       408    1        9.89850453      23.08870063      41.39307949
       409    1        7.89784901      22.47169757      39.44327367
       410    1        7.08865308      24.45519831      37.54696548
       411    1        8.87613997      25.25290340      35.46043361
       412    1        9.68533589      23.26940266      37.35674180
       413    1        7.68468038      22.65239959      35.40693599
       414    1        6.87548445      24.63590033      33.51062780
       415    1        8.66297133      25.43360542      31.42409592
       416    1        9.47216726      23.45010468      33.32040412
       417    1        7.47151174      22.83310161      31.37059830
       418    1        6.66231581      24.81660236      29.47429011
       419    1        8.44980269      25.61430744      27.38775824
       420    1        9.25899862      23.63080670      29.28406643
       421    1        7.25834310      23.01380364      27.33426061
       422    1        6.44914717      24.99730438      25.43795242
       423    1        9.04582998      23.81150872      25.24772874
       424    1        7.04517446      23.19450566      23.29792293
       425    1        6.23597854      25.17800640      21.40161474
       426    1       11.30313276      25.50850242      45.48291480
       427    1       11.08996412      25.68920444      41.44657711
       428    1       11.68599141      23.88640572      39.30654762
       429    1       10.87679548      25.86990646      37.41023943
       430    1       11.47282277      24.06710774      35.27020993
       431    1       10.66362685      26.05060848      33.37390174
       432    1       11.25965414      24.24780976      31.23387224
       433    1       10.45045821      26.23131051      29.33756405
       434    1       14.40387230      11.02154081      48.28280775
       435    1       13.21241271       8.42103701      48.22931012
       436    1       12.40321679      10.40453775      46.33300193
       437    1       14.19070367      11.20224284      44.24647006